/*--------------------------------*- C++ -*----------------------------------*\
| =========                 |                                                 |
| \\      /  F ield         | OpenFOAM: The Open Source CFD Toolbox           |
|  \\    /   O peration     | Version:  dev                                   |
|   \\  /    A nd           | Web:      www.OpenFOAM.org                      |
|    \\/     M anipulation  |                                                 |
\*---------------------------------------------------------------------------*/
FoamFile
{
    version     2.0;
    format      ascii;
    class       volScalarField;
    location    "0.5";
    object      p;
}
// * * * * * * * * * * * * * * * * * * * * * * * * * * * * * * * * * * * * * //

dimensions      [0 2 -2 0 0 0 0];

internalField   nonuniform List<scalar> 
336
(
4.29931e-06
-0.00582257
-0.0129603
-0.0184126
-0.0204301
-0.0182365
-0.011772
-0.00148187
0.0118391
0.0271508
0.043246
0.0588246
0.00578327
-0.000215787
-0.00580166
-0.00954039
-0.0105969
-0.00843077
-0.00296807
0.00547592
0.0163046
0.0287134
0.0417514
0.0543876
0.0133375
0.00503595
-0.000993126
-0.00442103
-0.00527097
-0.00326208
0.0016041
0.00902928
0.0185037
0.0293509
0.0407671
0.0518713
0.0201416
0.00869811
0.00122797
-0.00266649
-0.00372019
-0.0018835
0.00273298
0.00978621
0.018782
0.0290967
0.0399936
0.0506557
0.0245041
0.0097752
0.000591855
-0.00398487
-0.00530027
-0.00350548
0.00117647
0.0083362
0.0174636
0.0279507
0.0390866
0.0500716
0.0251799
0.0071521
-0.00379995
-0.00905514
-0.0105101
-0.00849802
-0.00335496
0.00443116
0.014315
0.0256807
0.0378155
0.049905
0.0210955
-0.000260298
-0.0129324
-0.0187072
-0.0200277
-0.0174118
-0.0113164
-0.00231778
0.00899223
0.0219779
0.0359114
0.0499461
0.0111449
-0.0136161
-0.0278729
-0.0338521
-0.0346014
-0.0308553
-0.0232107
-0.0123431
0.00110686
0.0164858
0.0330544
0.0499355
-0.00596503
-0.0342643
-0.0498679
-0.0555464
-0.0550879
-0.0495123
-0.0395912
-0.026111
-0.00975487
0.00882514
0.028903
0.0495955
-0.0318549
-0.0638739
-0.0804146
-0.0850049
-0.0824178
-0.074076
-0.0609785
-0.0440342
-0.0239491
-0.00133453
0.0231479
0.0486632
-0.068665
-0.104601
-0.121342
-0.123588
-0.117513
-0.105124
-0.0877158
-0.066323
-0.0416345
-0.014153
0.0156081
0.0469556
-0.1194
-0.159354
-0.174912
-0.172754
-0.161145
-0.142926
-0.119756
-0.0927744
-0.0625748
-0.0294449
0.00637585
0.0444762
-0.188625
-0.232239
-0.243936
-0.233945
-0.213691
-0.187152
-0.15637
-0.122498
-0.0858951
-0.0464693
-0.00401152
0.0415418
-0.283971
-0.329302
-0.331829
-0.308277
-0.274705
-0.236437
-0.195761
-0.153607
-0.109837
-0.063742
-0.0144347
0.0388667
-0.419315
-0.459668
-0.442347
-0.395789
-0.342126
-0.287736
-0.234612
-0.182926
-0.131606
-0.0789813
-0.0232104
0.0374789
-0.620528
-0.63674
-0.578673
-0.494189
-0.411237
-0.335654
-0.267776
-0.205973
-0.147532
-0.0893788
-0.0284219
0.0383524
-0.935919
-0.878511
-0.741737
-0.597944
-0.474389
-0.372655
-0.288864
-0.217758
-0.153949
-0.0924594
-0.0287128
0.0417002
-1.47642
-1.20663
-0.920499
-0.691384
-0.517301
-0.38754
-0.290057
-0.213333
-0.148119
-0.0872109
-0.024573
0.0454621
-2.53964
-1.63054
-1.04443
-0.710954
-0.495746
-0.352089
-0.254526
-0.183579
-0.126165
-0.0735906
-0.0192644
0.0427915
-4.36666
-2.04463
-0.973538
-0.563177
-0.357842
-0.240143
-0.170115
-0.123779
-0.087477
-0.0535059
-0.0166499
0.0276653
0.0697995
0.0881566
0.10305
0.112703
0.115553
0.110194
0.0928363
0.0614136
0.0740977
0.0979744
0.118398
0.133128
0.139991
0.13682
0.118443
0.0819359
0.0788581
0.109796
0.137626
0.159588
0.172729
0.17378
0.155523
0.113573
0.0840577
0.123706
0.161139
0.193088
0.21567
0.224079
0.208053
0.160635
0.089845
0.139832
0.189322
0.234692
0.271077
0.291667
0.281745
0.229778
0.0965575
0.15828
0.222377
0.285291
0.3414
0.381578
0.384917
0.331837
0.104557
0.178841
0.259865
0.344974
0.428619
0.499703
0.529678
0.485394
0.113811
0.200476
0.299979
0.412029
0.533033
0.651779
0.732775
0.722399
0.123268
0.220722
0.33893
0.482159
0.652001
0.841346
1.01527
1.09751
0.128942
0.233075
0.367108
0.542682
0.771297
1.05932
1.40329
1.73015
0.119217
0.218787
0.354817
0.547988
0.826397
1.23658
1.91168
2.9242
0.0846122
0.161734
0.272416
0.442103
0.718223
1.22571
2.41104
4.84854
)
;

boundaryField
{
    lid
    {
        type            zeroGradient;
    }
    fixedWalls
    {
        type            zeroGradient;
    }
    frontAndBack
    {
        type            empty;
    }
}


// ************************************************************************* //
